<?xml version="1.0" encoding="UTF-8"?>

<!-- generated on 2024-11-02 17:57:20 by 
<Configuration xmlns:xsi="http://www.w3.org/2001/XMLSchema-instance" xsi:noNamespaceSchemaLocation="http://sumo.dlr.de/xsd/Configuration.xsd">

    <input>
        <net-file value="womd_map_new/19a486cd29abd7a7/19a486cd29abd7a7.net.xml"/>
        <route-files value="womd_map_new/19a486cd29abd7a7/19a486cd29abd7a7.rou.xml"/>
    </input>

    <output>
        <fcd-output value="womd_map_new/fcd_all.xml"/>
        <fcd-output.acceleration value="true"/>
        <tripinfo-output value="womd_map_new/tripinfo.xml"/>
        <tripinfo-output.write-unfinished value="true"/>
        <collision-output value="womd_map_new/collision.xml"/>
    </output>

    <time>
        <step-length value="0.1"/>
    </time>

    <processing>
        <lateral-resolution value="0.2"/>
        <time-to-teleport value="-1"/>
    </processing>

    <report>
        <log value="womd_map_new/run.log"/>
    </report>

    <random_number>
        <seed value="2022"/>
    </random_number>

</Configuration>
-->

<fcd-export xmlns:xsi="http://www.w3.org/2001/XMLSchema-instance" xsi:noNamespaceSchemaLocation="http://sumo.dlr.de/xsd/fcd_file.xsd">
    <timestep time="0.00">
        <vehicle id="368" x="8382.37" y="7190.10" z="-14.31" angle="179.32" type="agent_368_type" speed="20.30" pos="7.65" lane=":node-1_1_0" slope="0.35" acceleration="0.00" accelerationLat="0.00"/>
        <vehicle id="369" x="8395.13" y="7273.34" z="-14.83" angle="358.85" type="agent_369_type" speed="19.29" pos="75.98" lane="1_0" slope="-0.37" acceleration="0.00" accelerationLat="0.00"/>
        <vehicle id="370" x="8396.03" y="7180.09" z="-14.22" angle="359.51" type="agent_370_type" speed="21.63" pos="2.69" lane=":node-1_3_0" slope="-0.26" acceleration="0.00" accelerationLat="0.00"/>
        <vehicle id="371" x="8392.09" y="7257.58" z="-14.66" angle="359.57" type="agent_371_type" speed="18.24" pos="60.18" lane="1_1" slope="-0.31" acceleration="0.00" accelerationLat="0.00"/>
        <vehicle id="372" x="8392.48" y="7195.68" z="-14.28" angle="359.48" type="agent_372_type" speed="17.29" pos="18.97" lane=":node-1_3_1" slope="-0.35" acceleration="0.00" accelerationLat="0.00"/>
        <vehicle id="373" x="8394.87" y="7299.76" z="-14.93" angle="359.58" type="agent_373_type" speed="17.23" pos="102.54" lane="1_0" slope="-0.22" acceleration="0.00" accelerationLat="0.00"/>
        <vehicle id="556" x="8392.29" y="7224.99" z="-14.46" angle="359.66" type="agent_556_type" speed="18.38" pos="27.41" lane="1_1" slope="-0.33" acceleration="0.00" accelerationLat="0.00"/>
    </timestep>
    <timestep time="0.10">
        <vehicle id="368" x="8382.38" y="7188.04" z="-14.30" angle="179.62" type="agent_368_type" speed="20.42" pos="9.69" lane=":node-1_1_0" slope="0.38" acceleration="1.18" accelerationLat="0.00"/>
        <vehicle id="369" x="8395.13" y="7275.22" z="-14.83" angle="359.79" type="agent_369_type" speed="18.85" pos="77.86" lane="1_0" slope="-0.19" acceleration="-4.36" accelerationLat="-1.00"/>
        <vehicle id="370" x="8396.04" y="7182.21" z="-14.24" angle="0.00" type="agent_370_type" speed="21.87" pos="4.88" lane=":node-1_3_0" slope="-0.35" acceleration="2.42" accelerationLat="0.00"/>
        <vehicle id="371" x="8392.07" y="7259.41" z="-14.68" angle="359.62" type="agent_371_type" speed="18.33" pos="62.01" lane="1_1" slope="-0.38" acceleration="0.91" accelerationLat="0.00"/>
        <vehicle id="372" x="8392.47" y="7197.44" z="-14.29" angle="359.77" type="agent_372_type" speed="16.99" pos="20.67" lane=":node-1_3_1" slope="-0.35" acceleration="-3.00" accelerationLat="0.00"/>
        <vehicle id="373" x="8394.86" y="7301.50" z="-14.93" angle="359.46" type="agent_373_type" speed="17.37" pos="104.27" lane="1_0" slope="-0.26" acceleration="1.47" accelerationLat="0.00"/>
        <vehicle id="556" x="8392.28" y="7226.79" z="-14.47" angle="359.67" type="agent_556_type" speed="18.05" pos="29.22" lane="1_1" slope="-0.33" acceleration="-3.28" accelerationLat="0.00"/>
    </timestep>
    <timestep time="0.20">
        <vehicle id="368" x="8382.40" y="7185.95" z="-14.29" angle="179.62" type="agent_368_type" speed="20.55" pos="11.75" lane=":node-1_1_0" slope="0.38" acceleration="1.29" accelerationLat="0.00"/>
        <vehicle id="369" x="8395.13" y="7277.06" z="-14.84" angle="359.95" type="agent_369_type" speed="18.44" pos="79.71" lane="1_0" slope="-0.25" acceleration="-4.13" accelerationLat="-1.00"/>
        <vehicle id="370" x="8396.05" y="7184.33" z="-14.25" angle="0.24" type="agent_370_type" speed="22.01" pos="7.08" lane=":node-1_3_0" slope="-0.35" acceleration="1.39" accelerationLat="0.00"/>
        <vehicle id="371" x="8392.06" y="7261.24" z="-14.69" angle="359.65" type="agent_371_type" speed="18.42" pos="63.85" lane="1_1" slope="-0.38" acceleration="0.87" accelerationLat="0.00"/>
        <vehicle id="372" x="8392.46" y="7199.11" z="-14.30" angle="359.79" type="agent_372_type" speed="16.69" pos="1.39" lane="1_1" slope="-0.35" acceleration="-2.95" accelerationLat="0.00"/>
        <vehicle id="373" x="8394.84" y="7303.23" z="-14.94" angle="359.48" type="agent_373_type" speed="17.50" pos="106.02" lane="1_0" slope="-0.22" acceleration="1.25" accelerationLat="0.00"/>
        <vehicle id="556" x="8392.27" y="7228.55" z="-14.48" angle="359.67" type="agent_556_type" speed="17.74" pos="30.99" lane="1_1" slope="-0.33" acceleration="-3.15" accelerationLat="0.00"/>
    </timestep>
    <timestep time="0.30">
        <vehicle id="368" x="8382.41" y="7183.86" z="-14.28" angle="179.56" type="agent_368_type" speed="20.67" pos="13.81" lane=":node-1_1_0" slope="0.35" acceleration="1.25" accelerationLat="0.00"/>
        <vehicle id="369" x="8395.15" y="7278.85" z="-14.85" angle="0.19" type="agent_369_type" speed="18.05" pos="81.51" lane="1_0" slope="-0.25" acceleration="-3.92" accelerationLat="-1.00"/>
        <vehicle id="370" x="8396.07" y="7186.46" z="-14.26" angle="0.43" type="agent_370_type" speed="21.99" pos="9.28" lane=":node-1_3_0" slope="-0.31" acceleration="-0.26" accelerationLat="0.00"/>
        <vehicle id="371" x="8392.05" y="7263.09" z="-14.70" angle="359.62" type="agent_371_type" speed="18.59" pos="65.71" lane="1_1" slope="-0.38" acceleration="1.67" accelerationLat="0.00"/>
        <vehicle id="372" x="8392.46" y="7200.74" z="-14.31" angle="359.75" type="agent_372_type" speed="16.40" pos="3.03" lane="1_1" slope="-0.36" acceleration="-2.91" accelerationLat="0.00"/>
        <vehicle id="373" x="8394.83" y="7304.99" z="-14.93" angle="359.54" type="agent_373_type" speed="17.63" pos="107.79" lane="1_0" slope="0.00" acceleration="1.31" accelerationLat="0.00"/>
        <vehicle id="556" x="8392.26" y="7230.29" z="-14.49" angle="359.67" type="agent_556_type" speed="17.43" pos="32.73" lane="1_1" slope="-0.33" acceleration="-3.02" accelerationLat="0.00"/>
    </timestep>
    <timestep time="0.40">
        <vehicle id="368" x="8382.43" y="7181.75" z="-14.27" angle="179.46" type="agent_368_type" speed="20.81" pos="15.90" lane=":node-1_1_0" slope="0.25" acceleration="1.39" accelerationLat="0.00"/>
        <vehicle id="369" x="8395.18" y="7280.61" z="-14.86" angle="0.41" type="agent_369_type" speed="17.68" pos="83.28" lane="1_0" slope="-0.19" acceleration="-3.72" accelerationLat="-1.00"/>
        <vehicle id="370" x="8396.09" y="7188.59" z="-14.27" angle="0.51" type="agent_370_type" speed="22.03" pos="11.48" lane=":node-1_3_0" slope="-0.33" acceleration="0.46" accelerationLat="0.00"/>
        <vehicle id="371" x="8392.04" y="7264.95" z="-14.71" angle="359.62" type="agent_371_type" speed="18.71" pos="67.58" lane="1_1" slope="-0.37" acceleration="1.21" accelerationLat="0.00"/>
        <vehicle id="372" x="8392.45" y="7202.34" z="-14.32" angle="359.76" type="agent_372_type" speed="16.11" pos="4.64" lane="1_1" slope="-0.36" acceleration="-2.91" accelerationLat="0.00"/>
        <vehicle id="373" x="8394.81" y="7306.75" z="-14.92" angle="359.47" type="agent_373_type" speed="17.74" pos="109.56" lane="1_0" slope="0.14" acceleration="1.13" accelerationLat="0.00"/>
        <vehicle id="556" x="8392.25" y="7231.99" z="-14.50" angle="359.67" type="agent_556_type" speed="17.14" pos="34.45" lane="1_1" slope="-0.35" acceleration="-2.97" accelerationLat="0.00"/>
    </timestep>
    <timestep time="0.50">
        <vehicle id="368" x="8382.46" y="7179.63" z="-14.25" angle="179.37" type="agent_368_type" speed="20.92" pos="17.99" lane=":node-1_1_0" slope="0.38" acceleration="1.09" accelerationLat="0.00"/>
        <vehicle id="369" x="8395.20" y="7282.33" z="-14.86" angle="0.62" type="agent_369_type" speed="17.32" pos="85.01" lane="1_0" slope="-0.25" acceleration="-3.54" accelerationLat="0.00"/>
        <vehicle id="370" x="8396.11" y="7190.71" z="-14.29" angle="0.68" type="agent_370_type" speed="21.98" pos="13.68" lane=":node-1_3_0" slope="-0.33" acceleration="-0.53" accelerationLat="0.00"/>
        <vehicle id="371" x="8392.03" y="7266.83" z="-14.72" angle="359.62" type="agent_371_type" speed="18.89" pos="69.47" lane="1_1" slope="-0.28" acceleration="1.84" accelerationLat="0.00"/>
        <vehicle id="372" x="8392.44" y="7203.92" z="-14.33" angle="359.75" type="agent_372_type" speed="15.82" pos="6.22" lane="1_1" slope="-0.36" acceleration="-2.91" accelerationLat="0.00"/>
        <vehicle id="373" x="8394.80" y="7308.54" z="-14.91" angle="359.55" type="agent_373_type" speed="17.87" pos="111.35" lane="1_0" slope="0.32" acceleration="1.29" accelerationLat="0.00"/>
        <vehicle id="556" x="8392.24" y="7233.67" z="-14.52" angle="359.67" type="agent_556_type" speed="16.84" pos="36.13" lane="1_1" slope="-0.39" acceleration="-2.97" accelerationLat="0.00"/>
    </timestep>
    <timestep time="0.60">
        <vehicle id="368" x="8382.48" y="7177.51" z="-14.24" angle="179.39" type="agent_368_type" speed="20.90" pos="20.08" lane=":node-1_1_0" slope="0.38" acceleration="-0.21" accelerationLat="0.00"/>
        <vehicle id="369" x="8395.22" y="7284.02" z="-14.87" angle="0.60" type="agent_369_type" speed="16.98" pos="86.71" lane="1_0" slope="-0.25" acceleration="-3.42" accelerationLat="1.00"/>
        <vehicle id="370" x="8396.14" y="7192.84" z="-14.30" angle="0.68" type="agent_370_type" speed="21.98" pos="15.88" lane=":node-1_3_0" slope="-0.35" acceleration="0.05" accelerationLat="0.00"/>
        <vehicle id="371" x="8392.01" y="7268.72" z="-14.74" angle="359.60" type="agent_371_type" speed="19.08" pos="71.38" lane="1_1" slope="-0.40" acceleration="1.92" accelerationLat="0.00"/>
        <vehicle id="372" x="8392.43" y="7205.46" z="-14.34" angle="359.65" type="agent_372_type" speed="15.53" pos="7.77" lane="1_1" slope="-0.36" acceleration="-2.91" accelerationLat="0.00"/>
        <vehicle id="373" x="8394.78" y="7310.33" z="-14.90" angle="359.46" type="agent_373_type" speed="18.00" pos="113.15" lane="1_0" slope="0.32" acceleration="1.26" accelerationLat="0.00"/>
        <vehicle id="556" x="8392.23" y="7235.34" z="-14.53" angle="359.67" type="agent_556_type" speed="16.86" pos="37.82" lane="1_1" slope="-0.43" acceleration="0.23" accelerationLat="0.00"/>
    </timestep>
    <timestep time="0.70">
        <vehicle id="368" x="8382.50" y="7175.40" z="-14.23" angle="179.34" type="agent_368_type" speed="20.87" pos="22.16" lane=":node-1_1_0" slope="0.32" acceleration="-0.27" accelerationLat="0.00"/>
        <vehicle id="369" x="8395.22" y="7285.68" z="-14.87" angle="0.40" type="agent_369_type" speed="16.64" pos="88.37" lane="1_0" slope="-0.12" acceleration="-3.42" accelerationLat="1.00"/>
        <vehicle id="370" x="8396.16" y="7194.97" z="-14.31" angle="0.64" type="agent_370_type" speed="22.02" pos="18.08" lane=":node-1_3_0" slope="-0.35" acceleration="0.36" accelerationLat="0.00"/>
        <vehicle id="371" x="8392.00" y="7270.63" z="-14.75" angle="359.55" type="agent_371_type" speed="19.19" pos="73.30" lane="1_1" slope="-0.38" acceleration="1.01" accelerationLat="0.00"/>
        <vehicle id="372" x="8392.42" y="7206.98" z="-14.35" angle="359.64" type="agent_372_type" speed="15.24" pos="9.30" lane="1_1" slope="-0.33" acceleration="-2.86" accelerationLat="0.00"/>
        <vehicle id="373" x="8394.77" y="7312.13" z="-14.89" angle="359.57" type="agent_373_type" speed="18.14" pos="114.96" lane="1_0" slope="0.32" acceleration="1.44" accelerationLat="0.00"/>
        <vehicle id="556" x="8392.22" y="7237.04" z="-14.54" angle="359.67" type="agent_556_type" speed="17.03" pos="39.52" lane="1_1" slope="-0.44" acceleration="1.66" accelerationLat="0.00"/>
    </timestep>
    <timestep time="0.80">
        <vehicle id="368" x="8382.53" y="7173.31" z="-14.22" angle="179.34" type="agent_368_type" speed="20.92" pos="1.98" lane="5_0" slope="0.28" acceleration="0.49" accelerationLat="0.00"/>
        <vehicle id="369" x="8395.22" y="7287.30" z="-14.88" angle="0.21" type="agent_369_type" speed="16.30" pos="90.00" lane="1_0" slope="-0.25" acceleration="-3.42" accelerationLat="1.00"/>
        <vehicle id="370" x="8396.17" y="7197.09" z="-14.33" angle="0.55" type="agent_370_type" speed="22.03" pos="20.28" lane=":node-1_3_0" slope="-0.33" acceleration="0.05" accelerationLat="0.00"/>
        <vehicle id="371" x="8391.99" y="7272.56" z="-14.76" angle="359.62" type="agent_371_type" speed="19.36" pos="75.23" lane="1_1" slope="-0.38" acceleration="1.76" accelerationLat="0.00"/>
        <vehicle id="372" x="8392.41" y="7208.51" z="-14.36" angle="359.66" type="agent_372_type" speed="15.38" pos="10.84" lane="1_1" slope="-0.34" acceleration="1.39" accelerationLat="0.00"/>
        <vehicle id="373" x="8394.76" y="7313.96" z="-14.88" angle="359.57" type="agent_373_type" speed="18.33" pos="116.80" lane="1_0" slope="0.32" acceleration="1.86" accelerationLat="0.00"/>
        <vehicle id="556" x="8392.21" y="7238.74" z="-14.55" angle="359.67" type="agent_556_type" speed="17.09" pos="41.23" lane="1_1" slope="-0.38" acceleration="0.61" accelerationLat="0.00"/>
    </timestep>
    <timestep time="0.90">
        <vehicle id="368" x="8382.56" y="7171.22" z="-14.21" angle="179.25" type="agent_368_type" speed="20.91" pos="4.07" lane="5_0" slope="0.25" acceleration="-0.09" accelerationLat="0.00"/>
        <vehicle id="369" x="8395.20" y="7288.92" z="-14.89" angle="359.95" type="agent_369_type" speed="16.23" pos="91.63" lane="1_0" slope="-0.25" acceleration="-0.64" accelerationLat="1.00"/>
        <vehicle id="370" x="8396.19" y="7199.27" z="-14.34" angle="0.45" type="agent_370_type" speed="21.99" pos="1.53" lane="1_0" slope="-0.35" acceleration="-0.38" accelerationLat="0.00"/>
        <vehicle id="371" x="8391.97" y="7274.50" z="-14.77" angle="359.52" type="agent_371_type" speed="19.51" pos="77.18" lane="1_1" slope="-0.36" acceleration="1.44" accelerationLat="0.00"/>
        <vehicle id="372" x="8392.40" y="7210.04" z="-14.37" angle="359.65" type="agent_372_type" speed="15.43" pos="12.38" lane="1_1" slope="-0.35" acceleration="0.49" accelerationLat="0.00"/>
        <vehicle id="373" x="8394.75" y="7315.79" z="-14.87" angle="359.67" type="agent_373_type" speed="18.47" pos="118.64" lane="1_0" slope="0.32" acceleration="1.37" accelerationLat="0.00"/>
        <vehicle id="556" x="8392.20" y="7240.45" z="-14.56" angle="359.67" type="agent_556_type" speed="17.23" pos="42.95" lane="1_1" slope="-0.37" acceleration="1.42" accelerationLat="0.00"/>
    </timestep>
    <timestep time="1.00">
        <vehicle id="368" x="8382.58" y="7169.13" z="-14.20" angle="179.36" type="agent_368_type" speed="20.92" pos="6.16" lane="5_0" slope="0.25" acceleration="0.11" accelerationLat="0.00"/>
        <vehicle id="369" x="8395.20" y="7290.54" z="-14.89" angle="359.88" type="agent_369_type" speed="16.35" pos="93.26" lane="1_0" slope="-0.22" acceleration="1.13" accelerationLat="-0.65"/>
        <vehicle id="370" x="8396.19" y="7201.46" z="-14.36" angle="0.23" type="agent_370_type" speed="22.04" pos="3.73" lane="1_0" slope="-0.41" acceleration="0.48" accelerationLat="0.00"/>
        <vehicle id="371" x="8391.96" y="7276.45" z="-14.78" angle="359.60" type="agent_371_type" speed="19.63" pos="79.15" lane="1_1" slope="-0.40" acceleration="1.25" accelerationLat="0.00"/>
        <vehicle id="372" x="8392.40" y="7211.59" z="-14.38" angle="359.75" type="agent_372_type" speed="15.58" pos="13.94" lane="1_1" slope="-0.43" acceleration="1.49" accelerationLat="0.00"/>
        <vehicle id="373" x="8394.73" y="7317.65" z="-14.87" angle="359.59" type="agent_373_type" speed="18.65" pos="1.40" lane=":node-0_4_0" slope="0.21" acceleration="1.85" accelerationLat="0.00"/>
        <vehicle id="556" x="8392.19" y="7242.18" z="-14.57" angle="359.72" type="agent_556_type" speed="17.39" pos="44.69" lane="1_1" slope="-0.33" acceleration="1.62" accelerationLat="0.00"/>
    </timestep>
    <timestep time="1.10">
        <vehicle id="368" x="8382.60" y="7167.05" z="-14.19" angle="179.35" type="agent_368_type" speed="20.86" pos="8.25" lane="5_0" slope="0.25" acceleration="-0.58" accelerationLat="0.00"/>
        <vehicle id="369" x="8395.18" y="7292.18" z="-14.90" angle="359.68" type="agent_369_type" speed="16.49" pos="94.91" lane="1_0" slope="-0.25" acceleration="1.48" accelerationLat="0.94"/>
        <vehicle id="370" x="8396.19" y="7203.66" z="-14.37" angle="0.02" type="agent_370_type" speed="22.04" pos="5.94" lane="1_0" slope="-0.36" acceleration="0.09" accelerationLat="0.00"/>
        <vehicle id="371" x="8391.94" y="7278.42" z="-14.80" angle="359.50" type="agent_371_type" speed="19.77" pos="81.12" lane="1_1" slope="-0.38" acceleration="1.35" accelerationLat="0.00"/>
        <vehicle id="372" x="8392.38" y="7213.15" z="-14.39" angle="359.69" type="agent_372_type" speed="15.70" pos="15.51" lane="1_1" slope="-0.41" acceleration="1.23" accelerationLat="0.00"/>
        <vehicle id="373" x="8394.72" y="7319.54" z="-14.87" angle="359.57" type="agent_373_type" speed="18.82" pos="3.28" lane=":node-0_4_0" slope="0.11" acceleration="1.70" accelerationLat="0.00"/>
        <vehicle id="556" x="8392.19" y="7243.92" z="-14.58" angle="359.77" type="agent_556_type" speed="17.52" pos="46.44" lane="1_1" slope="-0.37" acceleration="1.24" accelerationLat="0.00"/>
    </timestep>
    <timestep time="1.20">
        <vehicle id="368" x="8382.63" y="7164.96" z="-14.18" angle="179.34" type="agent_368_type" speed="20.93" pos="10.34" lane="5_0" slope="0.25" acceleration="0.65" accelerationLat="0.00"/>
        <vehicle id="369" x="8395.17" y="7293.84" z="-14.90" angle="359.66" type="agent_369_type" speed="16.65" pos="96.58" lane="1_0" slope="-0.13" acceleration="1.57" accelerationLat="-0.57"/>
        <vehicle id="370" x="8396.19" y="7205.85" z="-14.38" angle="0.00" type="agent_370_type" speed="22.03" pos="8.14" lane="1_0" slope="-0.34" acceleration="-0.12" accelerationLat="0.00"/>
        <vehicle id="371" x="8391.92" y="7280.40" z="-14.81" angle="359.49" type="agent_371_type" speed="19.88" pos="83.11" lane="1_1" slope="-0.38" acceleration="1.20" accelerationLat="0.00"/>
        <vehicle id="372" x="8392.37" y="7214.73" z="-14.39" angle="359.69" type="agent_372_type" speed="15.81" pos="17.09" lane="1_1" slope="-0.31" acceleration="1.05" accelerationLat="0.00"/>
        <vehicle id="373" x="8394.71" y="7321.44" z="-14.86" angle="359.64" type="agent_373_type" speed="18.95" pos="5.17" lane=":node-0_4_0" slope="0.11" acceleration="1.27" accelerationLat="0.00"/>
        <vehicle id="556" x="8392.18" y="7245.67" z="-14.59" angle="359.78" type="agent_556_type" speed="17.59" pos="48.20" lane="1_1" slope="-0.33" acceleration="0.69" accelerationLat="0.00"/>
    </timestep>
    <timestep time="1.30">
        <vehicle id="368" x="8382.65" y="7162.87" z="-14.17" angle="179.35" type="agent_368_type" speed="20.88" pos="12.43" lane="5_0" slope="0.25" acceleration="-0.43" accelerationLat="0.00"/>
        <vehicle id="369" x="8395.15" y="7295.50" z="-14.91" angle="359.49" type="agent_369_type" speed="16.71" pos="98.25" lane="1_0" slope="-0.23" acceleration="0.61" accelerationLat="0.38"/>
        <vehicle id="370" x="8396.18" y="7208.04" z="-14.40" angle="359.89" type="agent_370_type" speed="21.98" pos="10.34" lane="1_0" slope="-0.35" acceleration="-0.53" accelerationLat="0.00"/>
        <vehicle id="371" x="8391.91" y="7282.39" z="-14.82" angle="359.48" type="agent_371_type" speed="20.06" pos="85.12" lane="1_1" slope="-0.38" acceleration="1.80" accelerationLat="0.00"/>
        <vehicle id="372" x="8392.36" y="7216.30" z="-14.41" angle="359.57" type="agent_372_type" speed="15.86" pos="18.67" lane="1_1" slope="-0.31" acceleration="0.51" accelerationLat="0.00"/>
        <vehicle id="373" x="8394.70" y="7323.35" z="-14.86" angle="359.68" type="agent_373_type" speed="19.10" pos="7.08" lane=":node-0_4_0" slope="0.11" acceleration="1.55" accelerationLat="0.00"/>
        <vehicle id="556" x="8392.17" y="7247.44" z="-14.60" angle="359.74" type="agent_556_type" speed="17.72" pos="49.97" lane="1_1" slope="-0.33" acceleration="1.29" accelerationLat="0.00"/>
    </timestep>
    <timestep time="1.40">
        <vehicle id="368" x="8382.68" y="7160.79" z="-14.16" angle="179.36" type="agent_368_type" speed="20.87" pos="14.51" lane="5_0" slope="0.25" acceleration="-0.17" accelerationLat="0.00"/>
        <vehicle id="369" x="8395.14" y="7297.18" z="-14.92" angle="359.50" type="agent_369_type" speed="16.89" pos="99.94" lane="1_0" slope="-0.25" acceleration="1.80" accelerationLat="0.39"/>
        <vehicle id="370" x="8396.16" y="7210.23" z="-14.41" angle="359.65" type="agent_370_type" speed="22.02" pos="12.54" lane="1_0" slope="-0.34" acceleration="0.36" accelerationLat="0.00"/>
        <vehicle id="371" x="8391.89" y="7284.40" z="-14.83" angle="359.48" type="agent_371_type" speed="20.24" pos="87.14" lane="1_1" slope="-0.27" acceleration="1.74" accelerationLat="0.00"/>
        <vehicle id="372" x="8392.35" y="7217.89" z="-14.42" angle="359.57" type="agent_372_type" speed="15.99" pos="20.27" lane="1_1" slope="-0.34" acceleration="1.36" accelerationLat="0.00"/>
        <vehicle id="373" x="8394.69" y="7325.27" z="-14.86" angle="359.68" type="agent_373_type" speed="19.21" pos="9.01" lane=":node-0_4_0" slope="0.11" acceleration="1.12" accelerationLat="0.00"/>
        <vehicle id="556" x="8392.16" y="7249.21" z="-14.61" angle="359.69" type="agent_556_type" speed="17.86" pos="51.76" lane="1_1" slope="-0.33" acceleration="1.41" accelerationLat="0.00"/>
    </timestep>
    <timestep time="1.50">
        <vehicle id="368" x="8382.70" y="7158.71" z="-14.15" angle="179.30" type="agent_368_type" speed="20.86" pos="16.60" lane="5_0" slope="0.26" acceleration="-0.08" accelerationLat="0.00"/>
        <vehicle id="369" x="8395.12" y="7298.88" z="-14.92" angle="359.54" type="agent_369_type" speed="17.07" pos="101.64" lane="1_0" slope="-0.15" acceleration="1.76" accelerationLat="-0.85"/>
        <vehicle id="370" x="8396.14" y="7212.42" z="-14.43" angle="359.58" type="agent_370_type" speed="21.98" pos="14.74" lane="1_0" slope="-0.42" acceleration="-0.33" accelerationLat="0.00"/>
        <vehicle id="371" x="8391.87" y="7286.44" z="-14.85" angle="359.50" type="agent_371_type" speed="20.43" pos="89.19" lane="1_1" slope="-0.38" acceleration="1.96" accelerationLat="0.00"/>
        <vehicle id="372" x="8392.35" y="7219.49" z="-14.43" angle="359.69" type="agent_372_type" speed="16.10" pos="21.88" lane="1_1" slope="-0.43" acceleration="1.09" accelerationLat="0.00"/>
        <vehicle id="373" x="8394.68" y="7327.20" z="-14.86" angle="359.68" type="agent_373_type" speed="19.33" pos="10.94" lane=":node-0_4_0" slope="0.00" acceleration="1.10" accelerationLat="0.00"/>
        <vehicle id="556" x="8392.15" y="7251.00" z="-14.62" angle="359.67" type="agent_556_type" speed="18.02" pos="53.56" lane="1_1" slope="-0.36" acceleration="1.66" accelerationLat="0.00"/>
    </timestep>
    <timestep time="1.60">
        <vehicle id="368" x="8382.72" y="7156.62" z="-14.14" angle="179.35" type="agent_368_type" speed="20.91" pos="18.69" lane="5_0" slope="0.25" acceleration="0.49" accelerationLat="0.00"/>
        <vehicle id="369" x="8395.11" y="7300.59" z="-14.93" angle="359.52" type="agent_369_type" speed="17.14" pos="103.36" lane="1_0" slope="-0.25" acceleration="0.72" accelerationLat="0.41"/>
        <vehicle id="370" x="8396.12" y="7214.60" z="-14.44" angle="359.43" type="agent_370_type" speed="21.99" pos="16.94" lane="1_0" slope="-0.35" acceleration="0.09" accelerationLat="0.00"/>
        <vehicle id="371" x="8391.85" y="7288.49" z="-14.85" angle="359.50" type="agent_371_type" speed="20.63" pos="91.25" lane="1_1" slope="-0.25" acceleration="1.97" accelerationLat="0.00"/>
        <vehicle id="372" x="8392.33" y="7221.11" z="-14.43" angle="359.69" type="agent_372_type" speed="16.23" pos="23.51" lane="1_1" slope="-0.31" acceleration="1.29" accelerationLat="0.00"/>
        <vehicle id="373" x="8394.67" y="7329.15" z="-14.86" angle="359.68" type="agent_373_type" speed="19.44" pos="12.88" lane=":node-0_4_0" slope="0.00" acceleration="1.12" accelerationLat="0.00"/>
        <vehicle id="556" x="8392.14" y="7252.81" z="-14.64" angle="359.67" type="agent_556_type" speed="18.18" pos="55.38" lane="1_1" slope="-0.42" acceleration="1.59" accelerationLat="0.00"/>
    </timestep>
    <timestep time="1.70">
        <vehicle id="368" x="8382.75" y="7154.53" z="-14.13" angle="179.34" type="agent_368_type" speed="20.86" pos="20.78" lane="5_0" slope="0.25" acceleration="-0.45" accelerationLat="0.00"/>
        <vehicle id="369" x="8395.09" y="7302.30" z="-14.94" angle="359.52" type="agent_369_type" speed="17.24" pos="105.08" lane="1_0" slope="-0.25" acceleration="0.96" accelerationLat="-0.30"/>
        <vehicle id="370" x="8396.10" y="7216.79" z="-14.46" angle="359.42" type="agent_370_type" speed="21.98" pos="19.14" lane="1_0" slope="-0.40" acceleration="-0.10" accelerationLat="0.00"/>
        <vehicle id="371" x="8391.83" y="7290.56" z="-14.85" angle="359.42" type="agent_371_type" speed="20.82" pos="93.33" lane="1_1" slope="-0.08" acceleration="1.92" accelerationLat="0.00"/>
        <vehicle id="372" x="8392.32" y="7222.73" z="-14.45" angle="359.69" type="agent_372_type" speed="16.32" pos="25.14" lane="1_1" slope="-0.31" acceleration="0.93" accelerationLat="0.00"/>
        <vehicle id="373" x="8394.66" y="7331.11" z="-14.86" angle="359.69" type="agent_373_type" speed="19.62" pos="14.84" lane=":node-0_4_0" slope="0.00" acceleration="1.80" accelerationLat="0.00"/>
        <vehicle id="556" x="8392.13" y="7254.64" z="-14.65" angle="359.67" type="agent_556_type" speed="18.34" pos="57.21" lane="1_1" slope="-0.38" acceleration="1.61" accelerationLat="0.00"/>
    </timestep>
    <timestep time="1.80">
        <vehicle id="368" x="8382.77" y="7152.45" z="-14.12" angle="179.35" type="agent_368_type" speed="20.94" pos="22.87" lane="5_0" slope="0.25" acceleration="0.76" accelerationLat="0.00"/>
        <vehicle id="369" x="8395.07" y="7304.03" z="-14.93" angle="359.45" type="agent_369_type" speed="17.36" pos="106.82" lane="1_0" slope="0.00" acceleration="1.20" accelerationLat="0.65"/>
        <vehicle id="370" x="8396.07" y="7218.99" z="-14.47" angle="359.31" type="agent_370_type" speed="22.03" pos="21.34" lane="1_0" slope="-0.36" acceleration="0.50" accelerationLat="0.00"/>
        <vehicle id="371" x="8391.81" y="7292.64" z="-14.85" angle="359.48" type="agent_371_type" speed="20.97" pos="95.43" lane="1_1" slope="0.00" acceleration="1.47" accelerationLat="0.00"/>
        <vehicle id="372" x="8392.31" y="7224.37" z="-14.46" angle="359.57" type="agent_372_type" speed="16.46" pos="26.78" lane="1_1" slope="-0.35" acceleration="1.40" accelerationLat="0.00"/>
        <vehicle id="373" x="8394.64" y="7333.09" z="-14.86" angle="359.61" type="agent_373_type" speed="19.75" pos="16.82" lane=":node-0_4_0" slope="0.03" acceleration="1.32" accelerationLat="0.00"/>
        <vehicle id="556" x="8392.12" y="7256.48" z="-14.66" angle="359.67" type="agent_556_type" speed="18.48" pos="59.06" lane="1_1" slope="-0.36" acceleration="1.38" accelerationLat="0.00"/>
    </timestep>
    <timestep time="1.90">
        <vehicle id="368" x="8382.80" y="7150.35" z="-14.11" angle="179.36" type="agent_368_type" speed="20.91" pos="24.96" lane="5_0" slope="0.25" acceleration="-0.30" accelerationLat="0.00"/>
        <vehicle id="369" x="8395.05" y="7305.77" z="-14.92" angle="359.41" type="agent_369_type" speed="17.50" pos="108.57" lane="1_0" slope="0.12" acceleration="1.46" accelerationLat="0.01"/>
        <vehicle id="370" x="8396.05" y="7221.17" z="-14.48" angle="359.34" type="agent_370_type" speed="21.98" pos="23.54" lane="1_0" slope="-0.39" acceleration="-0.51" accelerationLat="0.00"/>
        <vehicle id="371" x="8391.79" y="7294.74" z="-14.85" angle="359.48" type="agent_371_type" speed="21.02" pos="97.53" lane="1_1" slope="0.00" acceleration="0.45" accelerationLat="0.00"/>
        <vehicle id="372" x="8392.30" y="7226.02" z="-14.47" angle="359.60" type="agent_372_type" speed="16.57" pos="28.44" lane="1_1" slope="-0.40" acceleration="1.05" accelerationLat="0.00"/>
        <vehicle id="373" x="8394.63" y="7335.07" z="-14.85" angle="359.61" type="agent_373_type" speed="19.82" pos="18.80" lane=":node-0_4_0" slope="0.11" acceleration="0.72" accelerationLat="0.00"/>
        <vehicle id="556" x="8392.11" y="7258.33" z="-14.67" angle="359.67" type="agent_556_type" speed="18.61" pos="60.92" lane="1_1" slope="-0.33" acceleration="1.29" accelerationLat="0.00"/>
    </timestep>
    <timestep time="2.00">
        <vehicle id="368" x="8382.82" y="7148.26" z="-14.10" angle="179.36" type="agent_368_type" speed="20.91" pos="27.05" lane="5_0" slope="0.25" acceleration="0.03" accelerationLat="0.00"/>
        <vehicle id="369" x="8395.03" y="7307.53" z="-14.92" angle="359.33" type="agent_369_type" speed="17.67" pos="110.33" lane="1_0" slope="0.31" acceleration="1.73" accelerationLat="0.43"/>