<?xml version="1.0" encoding="UTF-8"?>

<!-- generated on 2024-11-02 17:57:20 by 
<Configuration xmlns:xsi="http://www.w3.org/2001/XMLSchema-instance" xsi:noNamespaceSchemaLocation="http://sumo.dlr.de/xsd/Configuration.xsd">

    <input>
        <net-file value="womd_map_new/19a486cd29abd7a7/19a486cd29abd7a7.net.xml"/>
        <route-files value="womd_map_new/19a486cd29abd7a7/19a486cd29abd7a7.rou.xml"/>
    </input>

    <output>
        <fcd-output value="womd_map_new/fcd_all.xml"/>
        <fcd-output.acceleration value="true"/>
        <tripinfo-output value="womd_map_new/tripinfo.xml"/>
        <tripinfo-output.write-unfinished value="true"/>
        <collision-output value="womd_map_new/collision.xml"/>
    </output>

    <time>
        <step-length value="0.1"/>
    </time>

    <processing>
        <lateral-resolution value="0.2"/>
        <time-to-teleport value="-1"/>
    </processing>

    <report>
        <log value="womd_map_new/run.log"/>
    </report>

    <random_number>
        <seed value="2022"/>
    </random_number>

</Configuration>
-->

<tripinfos xmlns:xsi="http://www.w3.org/2001/XMLSchema-instance" xsi:noNamespaceSchemaLocation="http://sumo.dlr.de/xsd/tripinfo_file.xsd">
    <tripinfo id="368" depart="0.00" departLane=":node-1_1_0" departPos="7.65" departPosLat="0.24" departSpeed="20.30" departDelay="0.00" arrival="4.30" arrivalLane="5_0" arrivalPos="74.66" arrivalPosLat="0.24" arrivalSpeed="20.87" duration="4.30" routeLength="89.29" waitingTime="0.00" waitingCount="0" stopTime="0.00" timeLoss="0.02" rerouteNo="0" devices="tripinfo_368 fcd_368" vType="agent_368_type" speedFactor="1.04" vaporized=""/>
    <tripinfo id="373" depart="0.00" departLane="1_0" departPos="102.54" departPosLat="0.24" departSpeed="17.23" departDelay="0.00" arrival="5.80" arrivalLane="6_0" arrivalPos="69.87" arrivalPosLat="0.24" arrivalSpeed="19.80" duration="5.80" routeLength="111.00" waitingTime="0.00" waitingCount="0" stopTime="0.00" timeLoss="0.13" rerouteNo="0" devices="tripinfo_373 fcd_373" vType="agent_373_type" speedFactor="0.99" vaporized=""/>
    <tripinfo id="371" depart="0.00" departLane="1_1" departPos="60.18" departPosLat="0.04" departSpeed="18.24" departDelay="0.00" arrival="7.50" arrivalLane="6_1" arrivalPos="69.87" arrivalPosLat="0.04" arrivalSpeed="20.95" duration="7.50" routeLength="153.36" waitingTime="0.00" waitingCount="0" stopTime="0.00" timeLoss="0.14" rerouteNo="0" devices="tripinfo_371 fcd_371" vType="agent_371_type" speedFactor="1.05" vaporized=""/>
    <tripinfo id="369" depart="0.00" departLane="1_0" departPos="75.98" departPosLat="0.21" departSpeed="19.29" departDelay="0.00" arrival="7.60" arrivalLane="6_0" arrivalPos="69.87" arrivalPosLat="-0.04" arrivalSpeed="19.19" duration="7.60" routeLength="137.56" waitingTime="0.00" waitingCount="0" stopTime="0.00" timeLoss="0.43" rerouteNo="0" devices="tripinfo_369 fcd_369" vType="agent_369_type" speedFactor="0.96" vaporized=""/>
    <tripinfo id="556" depart="0.00" departLane="1_1" departPos="27.41" departPosLat="0.01" departSpeed="18.38" departDelay="0.00" arrival="9.70" arrivalLane="6_1" arrivalPos="69.87" arrivalPosLat="0.01" arrivalSpeed="20.59" duration="9.70" routeLength="186.13" waitingTime="0.00" waitingCount="0" stopTime="0.00" timeLoss="0.64" rerouteNo="0" devices="tripinfo_556 fcd_556" vType="agent_556_type" speedFactor="1.03" vaporized=""/>
